# LAMMPS data
14832 atoms
2 atom types
0.0 56.1187515259 xlo xhi
0.0 48.6002607137 ylo yhi
0.0 50.7597961426 zlo zhi
-28.0593822345 0.0 0.0 xy xz yz

Masses

1 55.845  # Fe
2 14.0067  # N

Atoms  # atomic

1 1 1.469506335 5.389995575 3.163959832
2 1 1.469506335 5.389995575 15.853908868
3 1 1.469506335 5.389995575 28.543859416
4 1 1.469506335 5.389995575 41.233808452
5 1 -7.883621356 21.590082962 3.163959832
6 1 -7.883621356 21.590082962 15.853908868
7 1 -7.883621356 21.590082962 28.543859416
8 1 -7.883621356 21.590082962 41.233808452
9 1 -17.23674821 37.790168901 3.163959832
10 1 -17.23674821 37.790168901 15.853908868
11 1 -17.23674821 37.790168901 28.543859416
12 1 -17.23674821 37.790168901 41.233808452
13 1 20.175756146 5.389995575 3.163959832
14 1 20.175756146 5.389995575 15.853908868
15 1 20.175756146 5.389995575 28.543859416
16 1 20.175756146 5.389995575 41.233808452
17 1 10.822628456 21.590082962 3.163959832
18 1 10.822628456 21.590082962 15.853908868
19 1 10.822628456 21.590082962 28.543859416
20 1 10.822628456 21.590082962 41.233808452
21 1 1.469501602 37.790168901 3.163959832
22 1 1.469501602 37.790168901 15.853908868
23 1 1.469501602 37.790168901 28.543859416
24 1 1.469501602 37.790168901 41.233808452
25 1 38.882007213 5.389995575 3.163959832
26 1 38.882007213 5.389995575 15.853908868
27 1 38.882007213 5.389995575 28.543859416
28 1 38.882007213 5.389995575 41.233808452
29 1 29.528879522 21.590082962 3.163959832
30 1 29.528879522 21.590082962 15.853908868
31 1 29.528879522 21.590082962 28.543859416
32 1 29.528879522 21.590082962 41.233808452
33 1 20.175752668 37.790168901 3.163959832
34 1 20.175752668 37.790168901 15.853908868
35 1 20.175752668 37.790168901 28.543859416
36 1 20.175752668 37.790168901 41.233808452
37 1 1.469506335 5.389995575 7.393938053
38 1 1.469506335 5.389995575 20.083886333
39 1 1.469506335 5.389995575 32.773835368
40 1 1.469506335 5.389995575 45.463784404
41 1 -7.883621356 21.590082962 7.393938053
42 1 -7.883621356 21.590082962 20.083886333
43 1 -7.883621356 21.590082962 32.773835368
44 1 -7.883621356 21.590082962 45.463784404
45 1 -17.23674821 37.790168901 7.393938053
46 1 -17.23674821 37.790168901 20.083886333
47 1 -17.23674821 37.790168901 32.773835368
48 1 -17.23674821 37.790168901 45.463784404
49 1 20.175756146 5.389995575 7.393938053
50 1 20.175756146 5.389995575 20.083886333
51 1 20.175756146 5.389995575 32.773835368
52 1 20.175756146 5.389995575 45.463784404
53 1 10.822628456 21.590082962 7.393938053
54 1 10.822628456 21.590082962 20.083886333
55 1 10.822628456 21.590082962 32.773835368
56 1 10.822628456 21.590082962 45.463784404
57 1 1.469501602 37.790168901 7.393938053
58 1 1.469501602 37.790168901 20.083886333
59 1 1.469501602 37.790168901 32.773835368
60 1 1.469501602 37.790168901 45.463784404
61 1 38.882007213 5.389995575 7.393938053
62 1 38.882007213 5.389995575 20.083886333
63 1 38.882007213 5.389995575 32.773835368
64 1 38.882007213 5.389995575 45.463784404
65 1 29.528879522 21.590082962 7.393938053
66 1 29.528879522 21.590082962 20.083886333
67 1 29.528879522 21.590082962 32.773835368
68 1 29.528879522 21.590082962 45.463784404
69 1 20.175752668 37.790168901 7.393938053
70 1 20.175752668 37.790168901 20.083886333
71 1 20.175752668 37.790168901 32.773835368
72 1 20.175752668 37.790168901 45.463784404
73 1 1.469506335 5.389995575 11.623916275
74 1 1.469506335 5.389995575 24.31386531
75 1 1.469506335 5.389995575 37.003814346
76 1 1.469506335 5.389995575 49.693763382
77 1 -7.883621356 21.590082962 11.623916275
78 1 -7.883621356 21.590082962 24.31386531
79 1 -7.883621356 21.590082962 37.003814346
80 1 -7.883621356 21.590082962 49.693763382
81 1 -17.23674821 37.790168901 11.623916275
82 1 -17.23674821 37.790168901 24.31386531
83 1 -17.23674821 37.790168901 37.003814346
84 1 -17.23674821 37.790168901 49.693763382
85 1 20.175756146 5.389995575 11.623916275
86 1 20.175756146 5.389995575 24.31386531
87 1 20.175756146 5.389995575 37.003814346
88 1 20.175756146 5.389995575 49.693763382
89 1 10.822628456 21.590082962 11.623916275
90 1 10.822628456 21.590082962 24.31386531
91 1 10.822628456 21.590082962 37.003814346
92 1 10.822628456 21.590082962 49.693763382
93 1 1.469501602 37.790168901 11.623916275
94 1 1.469501602 37.790168901 24.31386531
95 1 1.469501602 37.790168901 37.003814346
96 1 1.469501602 37.790168901 49.693763382
97 1 38.882007213 5.389995575 11.623916275
98 1 38.882007213 5.389995575 24.31386531
99 1 38.882007213 5.389995575 37.003814346
100 1 38.882007213 5.389995575 49.693763382
101 1 29.528879522 21.590082962 11.623916275
102 1 29.528879522 21.590082962 24.31386531
103 1 29.528879522 21.590082962 37.003814346
104 1 29.528879522 21.590082962 49.693763382
105 1 20.175752668 37.790168901 11.623916275
106 1 20.175752668 37.790168901 24.31386531
107 1 20.175752668 37.790168901 37.003814346
108 1 20.175752668 37.790168901 49.693763382
109 1 -3.207057929 13.490039993 3.163959832
110 1 -3.207057929 13.490039993 15.853908868
111 1 -3.207057929 13.490039993 28.543859416
112 1 -3.207057929 13.490039993 41.233808452
113 1 -12.560185619 29.69012738 3.163959832
114 1 -12.560185619 29.69012738 15.853908868
115 1 -12.560185619 29.69012738 28.543859416
116 1 -12.560185619 29.69012738 41.233808452
117 1 -21.913312473 45.890213319 3.163959832
118 1 -21.913312473 45.890213319 15.853908868
119 1 -21.913312473 45.890213319 28.543859416
120 1 -21.913312473 45.890213319 41.233808452
121 1 15.499191883 13.490039993 3.163959832
122 1 15.499191883 13.490039993 15.853908868
123 1 15.499191883 13.490039993 28.543859416
124 1 15.499191883 13.490039993 41.233808452
125 1 6.146064193 29.69012738 3.163959832
126 1 6.146064193 29.69012738 15.853908868
127 1 6.146064193 29.69012738 28.543859416
128 1 6.146064193 29.69012738 41.233808452
129 1 -3.207062661 45.890213319 3.163959832
130 1 -3.207062661 45.890213319 15.853908868
131 1 -3.207062661 45.890213319 28.543859416
132 1 -3.207062661 45.890213319 41.233808452
133 1 34.205442949 13.490039993 3.163959832
134 1 34.205442949 13.490039993 15.853908868
135 1 34.205442949 13.490039993 28.543859416
136 1 34.205442949 13.490039993 41.233808452
137 1 24.852315259 29.69012738 3.163959832
138 1 24.852315259 29.69012738 15.853908868
139 1 24.852315259 29.69012738 28.543859416
140 1 24.852315259 29.69012738 41.233808452
141 1 15.499188405 45.890213319 3.163959832
142 1 15.499188405 45.890213319 15.853908868
143 1 15.499188405 45.890213319 28.543859416
144 1 15.499188405 45.890213319 41.233808452
145 1 -3.207057929 13.490039993 7.393938053
146 1 -3.207057929 13.490039993 20.083886333
147 1 -3.207057929 13.490039993 32.773835368
148 1 -3.207057929 13.490039993 45.463784404
149 1 -12.560185619 29.69012738 7.393938053
150 1 -12.560185619 29.69012738 20.083886333
151 1 -12.560185619 29.69012738 32.773835368
152 1 -12.560185619 29.69012738 45.463784404
153 1 -21.913312473 45.890213319 7.393938053
154 1 -21.913312473 45.890213319 20.083886333
155 1 -21.913312473 45.890213319 32.773835368
156 1 -21.913312473 45.890213319 45.463784404
157 1 15.499191883 13.490039993 7.393938053
158 1 15.499191883 13.490039993 20.083886333
159 1 15.499191883 13.490039993 32.773835368
160 1 15.499191883 13.490039993 45.463784404
161 1 6.146064193 29.69012738 7.393938053
162 1 6.146064193 29.69012738 20.083886333
163 1 6.146064193 29.69012738 32.773835368
164 1 6.146064193 29.69012738 45.463784404
165 1 -3.207062661 45.890213319 7.393938053
166 1 -3.207062661 45.890213319 20.083886333
167 1 -3.207062661 45.890213319 32.773835368
168 1 -3.207062661 45.890213319 45.463784404
169 1 34.205442949 13.490039993 7.393938053
170 1 34.205442949 13.490039993 20.083886333
171 1 34.205442949 13.490039993 32.773835368
172 1 34.205442949 13.490039993 45.463784404
173 1 24.852315259 29.69012738 7.393938053
174 1 24.852315259 29.69012738 20.083886333
175 1 24.852315259 29.69012738 32.773835368
176 1 24.852315259 29.69012738 45.463784404
177 1 15.499188405 45.890213319 7.393938053
178 1 15.499188405 45.890213319 20.083886333
179 1 15.499188405 45.890213319 32.773835368
180 1 15.499188405 45.890213319 45.463784404
181 1 -3.207057929 13.490039993 11.623916275
182 1 -3.207057929 13.490039993 24.31386531
183 1 -3.207057929 13.490039993 37.003814346
184 1 -3.207057929 13.490039993 49.693763382
185 1 -12.560185619 29.69012738 11.623916275
186 1 -12.560185619 29.69012738 24.31386531
187 1 -12.560185619 29.69012738 37.003814346
188 1 -12.560185619 29.69012738 49.693763382
189 1 -21.913312473 45.890213319 11.623916275
190 1 -21.913312473 45.890213319 24.31386531
191 1 -21.913312473 45.890213319 37.003814346
192 1 -21.913312473 45.890213319 49.693763382
193 1 15.499191883 13.490039993 11.623916275
194 1 15.499191883 13.490039993 24.31386531
195 1 15.499191883 13.490039993 37.003814346
196 1 15.499191883 13.490039993 49.693763382
197 1 6.146064193 29.69012738 11.623916275
198 1 6.146064193 29.69012738 24.31386531
199 1 6.146064193 29.69012738 37.003814346
200 1 6.146064193 29.69012738 49.693763382
201 1 -3.207062661 45.890213319 11.623916275
202 1 -3.207062661 45.890213319 24.31386531
203 1 -3.207062661 45.890213319 37.003814346
204 1 -3.207062661 45.890213319 49.693763382
205 1 34.205442949 13.490039993 11.623916275
206 1 34.205442949 13.490039993 24.31386531
207 1 34.205442949 13.490039993 37.003814346
208 1 34.205442949 13.490039993 49.693763382
209 1 24.852315259 29.69012738 11.623916275
210 1 24.852315259 29.69012738 24.31386531
211 1 24.852315259 29.69012738 37.003814346
212 1 24.852315259 29.69012738 49.693763382
213 1 15.499188405 45.890213319 11.623916275
214 1 15.499188405 45.890213319 24.31386531
215 1 15.499188405 45.890213319 37.003814346
216 1 15.499188405 45.890213319 49.693763382
217 1 10.82263145 5.389995575 3.163959832
218 1 10.82263145 5.389995575 15.853908868
219 1 10.82263145 5.389995575 28.543859416
220 1 10.82263145 5.389995575 41.233808452
221 1 1.469503759 21.590082962 3.163959832
222 1 1.469503759 21.590082962 15.853908868
223 1 1.469503759 21.590082962 28.543859416
224 1 1.469503759 21.590082962 41.233808452
225 1 -7.883623095 37.790168901 3.163959832
226 1 -7.883623095 37.790168901 15.853908868
227 1 -7.883623095 37.790168901 28.543859416
228 1 -7.883623095 37.790168901 41.233808452
229 1 29.528880843 5.389995575 3.163959832
230 1 29.528880843 5.389995575 15.853908868
231 1 29.528880843 5.389995575 28.543859416
232 1 29.528880843 5.389995575 41.233808452
233 1 20.175753153 21.590082962 3.163959832
234 1 20.175753153 21.590082962 15.853908868
235 1 20.175753153 21.590082962 28.543859416
236 1 20.175753153 21.590082962 41.233808452
237 1 10.822626299 37.790168901 3.163959832
238 1 10.822626299 37.790168901 15.853908868
239 1 10.822626299 37.790168901 28.543859416
240 1 10.822626299 37.790168901 41.233808452
241 1 48.235133582 5.389995575 3.163959832
242 1 48.235133582 5.389995575 15.853908868
243 1 48.235133582 5.389995575 28.543859416
244 1 48.235133582 5.389995575 41.233808452
245 1 38.882005892 21.590082962 3.163959832
246 1 38.882005892 21.590082962 15.853908868
247 1 38.882005892 21.590082962 28.543859416
248 1 38.882005892 21.590082962 41.233808452
249 1 29.528879038 37.790168901 3.163959832
250 1 29.528879038 37.790168901 15.853908868
251 1 29.528879038 37.790168901 28.543859416
252 1 29.528879038 37.790168901 41.233808452
253 1 10.82263145 5.389995575 7.393938053
254 1 10.82263145 5.389995575 20.083886333
255 1 10.82263145 5.389995575 32.773835368
256 1 10.82263145 5.389995575 45.463784404
257 1 1.469503759 21.590082962 7.393938053
258 1 1.469503759 21.590082962 20.083886333
259 1 1.469503759 21.590082962 32.773835368
260 1 1.469503759 21.590082962 45.463784404
261 1 -7.883623095 37.790168901 7.393938053
262 1 -7.883623095 37.790168901 20.083886333
263 1 -7.883623095 37.790168901 32.773835368
264 1 -7.883623095 37.790168901 45.463784404
265 1 29.528880843 5.389995575 7.393938053
266 1 29.528880843 5.389995575 20.083886333
267 1 29.528880843 5.389995575 32.773835368
268 1 29.528880843 5.389995575 45.463784404
269 1 20.175753153 21.590082962 7.393938053
270 1 20.175753153 21.590082962 20.083886333
271 1 20.175753153 21.590082962 32.773835368
272 1 20.175753153 21.590082962 45.463784404
273 1 10.822626299 37.790168901 7.393938053
274 1 10.822626299 37.790168901 20.083886333
275 1 10.822626299 37.790168901 32.773835368
276 1 10.822626299 37.790168901 45.463784404
277 1 48.235133582 5.389995575 7.393938053
278 1 48.235133582 5.389995575 20.083886333
279 1 48.235133582 5.389995575 32.773835368
280 1 48.235133582 5.389995575 45.463784404
281 1 38.882005892 21.590082962 7.393938053
282 1 38.882005892 21.590082962 20.083886333
283 1 38.882005892 21.590082962 32.773835368
284 1 38.882005892 21.590082962 45.463784404
285 1 29.528879038 37.790168901 7.393938053
286 1 29.528879038 37.790168901 20.083886333
287 1 29.528879038 37.790168901 32.773835368
288 1 29.528879038 37.790168901 45.463784404
289 1 10.82263145 5.389995575 11.623916275
290 1 10.82263145 5.389995575 24.31386531
291 1 10.82263145 5.389995575 37.003814346
292 1 10.82263145 5.389995575 49.693763382
293 1 1.469503759 21.590082962 11.623916275
294 1 1.469503759 21.590082962 24.31386531
295 1 1.469503759 21.590082962 37.003814346
296 1 1.469503759 21.590082962 49.693763382
297 1 -7.883623095 37.790168901 11.623916275
298 1 -7.883623095 37.790168901 24.31386531
299 1 -7.883623095 37.790168901 37.003814346
300 1 -7.883623095 37.790168901 49.693763382
301 1 29.528880843 5.389995575 11.623916275
302 1 29.528880843 5.389995575 24.31386531
303 1 29.528880843 5.389995575 37.003814346
304 1 29.528880843 5.389995575 49.693763382
305 1 20.175753153 21.590082962 11.623916275
306 1 20.175753153 21.590082962 24.31386531
307 1 20.175753153 21.590082962 37.003814346
308 1 20.175753153 21.590082962 49.693763382
309 1 10.822626299 37.790168901 11.623916275
310 1 10.822626299 37.790168901 24.31386531
311 1 10.822626299 37.790168901 37.003814346
312 1 10.822626299 37.790168901 49.693763382
313 1 48.235133582 5.389995575 11.623916275
314 1 48.235133582 5.389995575 24.31386531
315 1 48.235133582 5.389995575 37.003814346
316 1 48.235133582 5.389995575 49.693763382
317 1 38.882005892 21.590082962 11.623916275
318 1 38.882005892 21.590082962 24.31386531
319 1 38.882005892 21.590082962 37.003814346
320 1 38.882005892 21.590082962 49.693763382
321 1 29.528879038 37.790168901 11.623916275
322 1 29.528879038 37.790168901 24.31386531
323 1 29.528879038 37.790168901 37.003814346
324 1 29.528879038 37.790168901 49.693763382
325 1 6.146067186 13.490039993 3.163959832
326 1 6.146067186 13.490039993 15.853908868
327 1 6.146067186 13.490039993 28.543859416
328 1 6.146067186 13.490039993 41.233808452
329 1 -3.207060504 29.69012738 3.163959832
330 1 -3.207060504 29.69012738 15.853908868
331 1 -3.207060504 29.69012738 28.543859416
332 1 -3.207060504 29.69012738 41.233808452
333 1 -12.560187358 45.890213319 3.163959832
334 1 -12.560187358 45.890213319 15.853908868
335 1 -12.560187358 45.890213319 28.543859416
336 1 -12.560187358 45.890213319 41.233808452
337 1 24.85231658 13.490039993 3.163959832
338 1 24.85231658 13.490039993 15.853908868
339 1 24.85231658 13.490039993 28.543859416
340 1 24.85231658 13.490039993 41.233808452
341 1 15.49918889 29.69012738 3.163959832
342 1 15.49918889 29.69012738 15.853908868
343 1 15.49918889 29.69012738 28.543859416
344 1 15.49918889 29.69012738 41.233808452
345 1 6.146062036 45.890213319 3.163959832
346 1 6.146062036 45.890213319 15.853908868
347 1 6.146062036 45.890213319 28.543859416
348 1 6.146062036 45.890213319 41.233808452
349 1 43.558569319 13.490039993 3.163959832
350 1 43.558569319 13.490039993 15.853908868
351 1 43.558569319 13.490039993 28.543859416
352 1 43.558569319 13.490039993 41.233808452
353 1 34.205441628 29.69012738 3.163959832
354 1 34.205441628 29.69012738 15.853908868
355 1 34.205441628 29.69012738 28.543859416
356 1 34.205441628 29.69012738 41.233808452
357 1 24.852314774 45.890213319 3.163959832
358 1 24.852314774 45.890213319 15.853908868
359 1 24.852314774 45.890213319 28.543859416
360 1 24.852314774 45.890213319 41.233808452
361 1 6.146067186 13.490039993 7.393938053
362 1 6.146067186 13.490039993 20.083886333
363 1 6.146067186 13.490039993 32.773835368
364 1 6.146067186 13.490039993 45.463784404
365 1 -3.207060504 29.69012738 7.393938053
366 1 -3.207060504 29.69012738 20.083886333
367 1 -3.207060504 29.69012738 32.773835368
368 1 -3.207060504 29.69012738 45.463784404
369 1 -12.560187358 45.890213319 7.393938053
370 1 -12.560187358 45.890213319 20.083886333
371 1 -12.560187358 45.890213319 32.773835368
372 1 -12.560187358 45.890213319 45.463784404
373 1 24.85231658 13.490039993 7.393938053
374 1 24.85231658 13.490039993 20.083886333
375 1 24.85231658 13.490039993 32.773835368
376 1 24.85231658 13.490039993 45.463784404
377 1 15.49918889 29.69012738 7.393938053
378 1 15.49918889 29.69012738 20.083886333
379 1 15.49918889 29.69012738 32.773835368
380 1 15.49918889 29.69012738 45.463784404
381 1 6.146062036 45.890213319 7.393938053
382 1 6.146062036 45.890213319 20.083886333
383 1 6.146062036 45.890213319 32.773835368
384 1 6.146062036 45.890213319 45.463784404
385 1 43.558569319 13.490039993 7.393938053
386 1 43.558569319 13.490039993 20.083886333
387 1 43.558569319 13.490039993 32.773835368
388 1 43.558569319 13.490039993 45.463784404
389 1 34.205441628 29.69012738 7.393938053
390 1 34.205441628 29.69012738 20.083886333
391 1 34.205441628 29.69012738 32.773835368
392 1 34.205441628 29.69012738 45.463784404
393 1 24.852314774 45.890213319 7.393938053
394 1 24.852314774 45.890213319 20.083886333
395 1 24.852314774 45.890213319 32.773835368
396 1 24.852314774 45.890213319 45.463784404
397 1 6.146067186 13.490039993 11.623916275
398 1 6.146067186 13.490039993 24.31386531
399 1 6.146067186 13.490039993 37.003814346
400 1 6.146067186 13.490039993 49.693763382
401 1 -3.207060504 29.69012738 11.623916275
402 1 -3.207060504 29.69012738 24.31386531
403 1 -3.207060504 29.69012738 37.003814346
404 1 -3.207060504 29.69012738 49.693763382
405 1 -12.560187358 45.890213319 11.623916275
406 1 -12.560187358 45.890213319 24.31386531
407 1 -12.560187358 45.890213319 37.003814346
408 1 -12.560187358 45.890213319 49.693763382
409 1 24.85231658 13.490039993 11.623916275
410 1 24.85231658 13.490039993 24.31386531
411 1 24.85231658 13.490039993 37.003814346
412 1 24.85231658 13.490039993 49.693763382
413 1 15.49918889 29.69012738 11.623916275
414 1 15.49918889 29.69012738 24.31386531
415 1 15.49918889 29.69012738 37.003814346
416 1 15.49918889 29.69012738 49.693763382
417 1 6.146062036 45.890213319 11.623916275
418 1 6.146062036 45.890213319 24.31386531
419 1 6.146062036 45.890213319 37.003814346
420 1 6.146062036 45.890213319 49.693763382
421 1 43.558569319 13.490039993 11.623916275
422 1 43.558569319 13.490039993 24.31386531
423 1 43.558569319 13.490039993 37.003814346
424 1 43.558569319 13.490039993 49.693763382
425 1 34.205441628 29.69012738 11.623916275
426 1 34.205441628 29.69012738 24.31386531
427 1 34.205441628 29.69012738 37.003814346
428 1 34.205441628 29.69012738 49.693763382
429 1 24.852314774 45.890213319 11.623916275
430 1 24.852314774 45.890213319 24.31386531
431 1 24.852314774 45.890213319 37.003814346
432 1 24.852314774 45.890213319 49.693763382
433 1 -0.743443285 4.132415566 3.163959832
434 1 -0.743443285 4.132415566 15.853908868
435 1 -0.743443285 4.132415566 28.543859416
436 1 -0.743443285 4.132415566 41.233808452
437 1 -10.096570348 20.332501867 3.163959832
438 1 -10.096570348 20.332501867 15.853908868
439 1 -10.096570348 20.332501867 28.543859416
440 1 -10.096570348 20.332501867 41.233808452
441 1 -19.449698039 36.532589254 3.163959832
442 1 -19.449698039 36.532589254 15.853908868
443 1 -19.449698039 36.532589254 28.543859416
444 1 -19.449698039 36.532589254 41.233808452
445 1 17.962807258 4.132415566 3.163959832
446 1 17.962807258 4.132415566 15.853908868
447 1 17.962807258 4.132415566 28.543859416
448 1 17.962807258 4.132415566 41.233808452
449 1 8.609680195 20.332501867 3.163959832
450 1 8.609680195 20.332501867 15.853908868
451 1 8.609680195 20.332501867 28.543859416
452 1 8.609680195 20.332501867 41.233808452
453 1 -0.743447495 36.532589254 3.163959832
454 1 -0.743447495 36.532589254 15.853908868
455 1 -0.743447495 36.532589254 28.543859416
456 1 -0.743447495 36.532589254 41.233808452
457 1 36.669058324 4.132415566 3.163959832
458 1 36.669058324 4.132415566 15.853908868
459 1 36.669058324 4.132415566 28.543859416
460 1 36.669058324 4.132415566 41.233808452
461 1 27.315931261 20.332501867 3.163959832
462 1 27.315931261 20.332501867 15.853908868
463 1 27.315931261 20.332501867 28.543859416
464 1 27.315931261 20.332501867 41.233808452
465 1 17.962803571 36.532589254 3.163959832
466 1 17.962803571 36.532589254 15.853908868
467 1 17.962803571 36.532589254 28.543859416
468 1 17.962803571 36.532589254 41.233808452
469 1 -0.743443285 4.132415566 7.393938053
470 1 -0.743443285 4.132415566 20.083886333
471 1 -0.743443285 4.132415566 32.773835368
472 1 -0.743443285 4.132415566 45.463784404
473 1 -10.096570348 20.332501867 7.393938053
474 1 -10.096570348 20.332501867 20.083886333
475 1 -10.096570348 20.332501867 32.773835368
476 1 -10.096570348 20.332501867 45.463784404
477 1 -19.449698039 36.532589254 7.393938053
478 1 -19.449698039 36.532589254 20.083886333
479 1 -19.449698039 36.532589254 32.773835368
480 1 -19.449698039 36.532589254 45.463784404
481 1 17.962807258 4.132415566 7.393938053
482 1 17.962807258 4.132415566 20.083886333
483 1 17.962807258 4.132415566 32.773835368
484 1 17.962807258 4.132415566 45.463784404
485 1 8.609680195 20.332501867 7.393938053
486 1 8.609680195 20.332501867 20.083886333
487 1 8.609680195 20.332501867 32.773835368
488 1 8.609680195 20.332501867 45.463784404
489 1 -0.743447495 36.532589254 7.393938053
490 1 -0.743447495 36.532589254 20.083886333
491 1 -0.743447495 36.532589254 32.773835368
492 1 -0.743447495 36.532589254 45.463784404
493 1 36.669058324 4.132415566 7.393938053
494 1 36.669058324 4.132415566 20.083886333
495 1 36.669058324 4.132415566 32.773835368
496 1 36.669058324 4.132415566 45.463784404
497 1 27.315931261 20.332501867 7.393938053
498 1 27.315931261 20.332501867 20.083886333
499 1 27.315931261 20.332501867 32.773835368
500 1 27.315931261 20.332501867 45.463784404
501 1 17.962803571 36.532589254 7.393938053
502 1 17.962803571 36.532589254 20.083886333
503 1 17.962803571 36.532589254 32.773835368
504 1 17.962803571 36.532589254 45.463784404
505 1 -0.743443285 4.132415566 11.623916275
506 1 -0.743443285 4.132415566 24.31386531
507 1 -0.743443285 4.132415566 37.003814346
508 1 -0.743443285 4.132415566 49.693763382
509 1 -10.096570348 20.332501867 11.623916275
510 1 -10.096570348 20.332501867 24.31386531
511 1 -10.096570348 20.332501867 37.003814346
512 1 -10.096570348 20.332501867 49.693763382
513 1 -19.449698039 36.532589254 11.623916275
514 1 -19.449698039 36.532589254 24.31386531
515 1 -19.449698039 36.532589254 37.003814346
516 1 -19.449698039 36.532589254 49.693763382
517 1 17.962807258 4.132415566 11.623916275
518 1 17.962807258 4.132415566 24.31386531
519 1 17.962807258 4.132415566 37.003814346
520 1 17.962807258 4.132415566 49.693763382
521 1 8.609680195 20.332501867 11.623916275
522 1 8.609680195 20.332501867 24.31386531
523 1 8.609680195 20.332501867 37.003814346
524 1 8.609680195 20.332501867 49.693763382
525 1 -0.743447495 36.532589254 11.623916275
526 1 -0.743447495 36.532589254 24.31386531
527 1 -0.743447495 36.532589254 37.003814346
528 1 -0.743447495 36.532589254 49.693763382
529 1 36.669058324 4.132415566 11.623916275
530 1 36.669058324 4.132415566 24.31386531
531 1 36.669058324 4.132415566 37.003814346
532 1 36.669058324 4.132415566 49.693763382
533 1 27.315931261 20.332501867 11.623916275
534 1 27.315931261 20.332501867 24.31386531
535 1 27.315931261 20.332501867 37.003814346
536 1 27.315931261 20.332501867 49.693763382
537 1 17.962803571 36.532589254 11.623916275
538 1 17.962803571 36.532589254 24.31386531
539 1 17.962803571 36.532589254 37.003814346
540 1 17.962803571 36.532589254 49.693763382
541 1 -5.420006921 12.232458897 3.163959832
542 1 -5.420006921 12.232458897 15.853908868
543 1 -5.420006921 12.232458897 28.543859416
544 1 -5.420006921 12.232458897 41.233808452
545 1 -14.773133775 28.432544836 3.163959832
546 1 -14.773133775 28.432544836 15.853908868
547 1 -14.773133775 28.432544836 28.543859416
548 1 -14.773133775 28.432544836 41.233808452
549 1 -24.126262302 44.632633672 3.163959832
550 1 -24.126262302 44.632633672 15.853908868
551 1 -24.126262302 44.632633672 28.543859416
552 1 -24.126262302 44.632633672 41.233808452
553 1 13.286243622 12.232458897 3.163959832
554 1 13.286243622 12.232458897 15.853908868
555 1 13.286243622 12.232458897 28.543859416
556 1 13.286243622 12.232458897 41.233808452
557 1 3.933116768 28.432544836 3.163959832
558 1 3.933116768 28.432544836 15.853908868
559 1 3.933116768 28.432544836 28.543859416
560 1 3.933116768 28.432544836 41.233808452
561 1 -5.420011758 44.632633672 3.163959832
562 1 -5.420011758 44.632633672 15.853908868
563 1 -5.420011758 44.632633672 28.543859416
564 1 -5.420011758 44.632633672 41.233808452
565 1 31.992494688 12.232458897 3.163959832
566 1 31.992494688 12.232458897 15.853908868
567 1 31.992494688 12.232458897 28.543859416
568 1 31.992494688 12.232458897 41.233808452
569 1 22.639367834 28.432544836 3.163959832
570 1 22.639367834 28.432544836 15.853908868
571 1 22.639367834 28.432544836 28.543859416
572 1 22.639367834 28.432544836 41.233808452
573 1 13.286239308 44.632633672 3.163959832
574 1 13.286239308 44.632633672 15.853908868
575 1 13.286239308 44.632633672 28.543859416
576 1 13.286239308 44.632633672 41.233808452
577 1 -5.420006921 12.232458897 7.393938053
578 1 -5.420006921 12.232458897 20.083886333
579 1 -5.420006921 12.232458897 32.773835368
580 1 -5.420006921 12.232458897 45.463784404
581 1 -14.773133775 28.432544836 7.393938053
582 1 -14.773133775 28.432544836 20.083886333
583 1 -14.773133775 28.432544836 32.773835368
584 1 -14.773133775 28.432544836 45.463784404
585 1 -24.126262302 44.632633672 7.393938053
586 1 -24.126262302 44.632633672 20.083886333
587 1 -24.126262302 44.632633672 32.773835368
588 1 -24.126262302 44.632633672 45.463784404
589 1 13.286243622 12.232458897 7.393938053
590 1 13.286243622 12.232458897 20.083886333
591 1 13.286243622 12.232458897 32.773835368
592 1 13.286243622 12.232458897 45.463784404
593 1 3.933116768 28.432544836 7.393938053
594 1 3.933116768 28.432544836 20.083886333
595 1 3.933116768 28.432544836 32.773835368
596 1 3.933116768 28.432544836 45.463784404
597 1 -5.420011758 44.632633672 7.393938053
598 1 -5.420011758 44.632633672 20.083886333
599 1 -5.420011758 44.632633672 32.773835368
600 1 -5.420011758 44.632633672 45.463784404
601 1 31.992494688 12.232458897 7.393938053
602 1 31.992494688 12.232458897 20.083886333
603 1 31.992494688 12.232458897 32.773835368
604 1 31.992494688 12.232458897 45.463784404
605 1 22.639367834 28.432544836 7.393938053
606 1 22.639367834 28.432544836 20.083886333
607 1 22.639367834 28.432544836 32.773835368
608 1 22.639367834 28.432544836 45.463784404
609 1 13.286239308 44.632633672 7.393938053
610 1 13.286239308 44.632633672 20.083886333
611 1 13.286239308 44.632633672 32.773835368
612 1 13.286239308 44.632633672 45.463784404
613 1 -5.420006921 12.232458897 11.623916275
614 1 -5.420006921 12.232458897 24.31386531
615 1 -5.420006921 12.232458897 37.003814346
616 1 -5.420006921 12.232458897 49.693763382
617 1 -14.773133775 28.432544836 11.623916275
618 1 -14.773133775 28.432544836 24.31386531
619 1 -14.773133775 28.432544836 37.003814346
620 1 -14.773133775 28.432544836 49.693763382
621 1 -24.126262302 44.632633672 11.623916275
622 1 -24.126262302 44.632633672 24.31386531
623 1 -24.126262302 44.632633672 37.003814346
624 1 -24.126262302 44.632633672 49.693763382
625 1 13.286243622 12.232458897 11.623916275
626 1 13.286243622 12.232458897 24.31386531
627 1 13.286243622 12.232458897 37.003814346
628 1 13.286243622 12.232458897 49.693763382
629 1 3.933116768 28.432544836 11.623916275
630 1 3.933116768 28.432544836 24.31386531
631 1 3.933116768 28.432544836 37.003814346
632 1 3.933116768 28.432544836 49.693763382
633 1 -5.420011758 44.632633672 11.623916275
634 1 -5.420011758 44.632633672 24.31386531
635 1 -5.420011758 44.632633672 37.003814346
636 1 -5.420011758 44.632633672 49.693763382
637 1 31.992494688 12.232458897 11.623916275
638 1 31.992494688 12.232458897 24.31386531
639 1 31.992494688 12.232458897 37.003814346
640 1 31.992494688 12.232458897 49.693763382
641 1 22.639367834 28.432544836 11.623916275
642 1 22.639367834 28.432544836 24.31386531
643 1 22.639367834 28.432544836 37.003814346
644 1 22.639367834 28.432544836 49.693763382
645 1 13.286239308 44.632633672 11.623916275
646 1 13.286239308 44.632633672 24.31386531
647 1 13.286239308 44.632633672 37.003814346
648 1 13.286239308 44.632633672 49.693763382
649 1 8.609682561 4.132415566 3.163959832
650 1 8.609682561 4.132415566 15.853908868
651 1 8.609682561 4.132415566 28.543859416
652 1 8.609682561 4.132415566 41.233808452
653 1 -0.743444502 20.332501867 3.163959832
654 1 -0.743444502 20.332501867 15.853908868
655 1 -0.743444502 20.332501867 28.543859416
656 1 -0.743444502 20.332501867 41.233808452
657 1 -10.096572192 36.532589254 3.163959832
658 1 -10.096572192 36.532589254 15.853908868
659 1 -10.096572192 36.532589254 28.543859416
660 1 -10.096572192 36.532589254 41.233808452
661 1 27.315931955 4.132415566 3.163959832
662 1 27.315931955 4.132415566 15.853908868
663 1 27.315931955 4.132415566 28.543859416
664 1 27.315931955 4.132415566 41.233808452
665 1 17.962804892 20.332501867 3.163959832
666 1 17.962804892 20.332501867 15.853908868
667 1 17.962804892 20.332501867 28.543859416
668 1 17.962804892 20.332501867 41.233808452
669 1 8.609677202 36.532589254 3.163959832
670 1 8.609677202 36.532589254 15.853908868
671 1 8.609677202 36.532589254 28.543859416
672 1 8.609677202 36.532589254 41.233808452
673 1 46.022184694 4.132415566 3.163959832